Title: ** generated for: eldo
Date: Sat Nov 24 22:00:41  2018
Plotname: Operating Point
Flags: real
No. Variables: 5
No. Points: 1       
Variables:
	0	v(@m.xinova.mnm0[vgs])	voltage
	1	v(@m.xinova.mnm0[vth])	voltage
	2	v(@m.xinova.mnm0[vds])	voltage
	3	v(@m.xinova.mnm0[vdsat])	voltage
	4	i(@m.xinova.mnm0[id])	current
Values:
0		9.281539993763532e-01
	5.834342528602676e-01
	1.575151240919005e+00
	2.722067080243782e-01
	1.126830301837156e-04
