Title: ** generated for: eldo
Date: Sat Nov 24 22:00:41  2018
Plotname: Operating Point
Flags: real
No. Variables: 5
No. Points: 1       
Variables:
	0	v(@m.xinova.mnm0[vgs])	voltage
	1	v(@m.xinova.mnm0[vth])	voltage
	2	v(@m.xinova.mnm0[vds])	voltage
	3	v(@m.xinova.mnm0[vdsat])	voltage
	4	i(@m.xinova.mnm0[id])	current
Values:
0		1.042680120381820e+00
	6.271333669581098e-01
	1.369299963383744e+00
	3.202262261717770e-01
	1.513504584375192e-04
