Title: ** generated for: eldo
Date: Tue Dec 11 14:21:03  2018
Plotname: Operating Point
Flags: real
No. Variables: 5
No. Points: 1       
Variables:
	0	v(@m.xinova.mnm0[vgs])	voltage
	1	v(@m.xinova.mnm0[vth])	voltage
	2	v(@m.xinova.mnm0[vds])	voltage
	3	v(@m.xinova.mnm0[vdsat])	voltage
	4	i(@m.xinova.mnm0[id])	current
Values:
0		8.485378943225279e-01
	5.005833978880296e-01
	1.519623153794325e+00
	2.769654347737119e-01
	1.242629470704981e-04
