Title: ** generated for: eldo
Date: Tue Dec 11 14:21:03  2018
Plotname: Operating Point
Flags: real
No. Variables: 5
No. Points: 1       
Variables:
	0	v(@m.xinova.mnm0[vgs])	voltage
	1	v(@m.xinova.mnm0[vth])	voltage
	2	v(@m.xinova.mnm0[vds])	voltage
	3	v(@m.xinova.mnm0[vdsat])	voltage
	4	i(@m.xinova.mnm0[id])	current
Values:
0		8.146985770749917e-01
	5.397106970681309e-01
	1.797669867268045e+00
	2.244587015838020e-01
	7.800027761062254e-05
