Title: ** generated for: eldo
Date: Tue Dec 11 14:21:03  2018
Plotname: Operating Point
Flags: real
No. Variables: 5
No. Points: 1       
Variables:
	0	v(@m.xinova.mnm0[vgs])	voltage
	1	v(@m.xinova.mnm0[vth])	voltage
	2	v(@m.xinova.mnm0[vds])	voltage
	3	v(@m.xinova.mnm0[vdsat])	voltage
	4	i(@m.xinova.mnm0[id])	current
Values:
0		1.002066667881488e+00
	6.667388923782527e-01
	1.665852349182202e+00
	2.629269444718822e-01
	9.757355851239301e-05
